LAMMPS data file via write_data, version 23 Oct 2017, timestep = 10000

8 atoms
4 atom types
4 bonds
1 bond types
2 angles
1 angle types

5.2323165922511308e+00 4.4767683407743228e+01 xlo xhi
5.2323165922511308e+00 4.4767683407743228e+01 ylo yhi
5.2323165922511308e+00 4.4767683407743228e+01 zlo zhi

Masses

1 22.99
2 35.45
3 15.9994
4 1.008

Atoms # full

529 283 4 4.1699999999999998e-01 8.8365567907170330e+00 7.4924901703140137e+00 7.7883447748293015e+00 0 -1 1
527 283 3 -8.3399999999999996e-01 9.6597683260654552e+00 7.5174521229183604e+00 8.3555334851125664e+00 0 -1 1
528 283 4 4.1699999999999998e-01 1.0413306616446988e+01 7.9150806567866976e+00 7.8320136960454700e+00 0 -1 1
3076 1132 4 4.1699999999999998e-01 9.7964845291001161e+00 6.5767746130248943e+00 1.1450151498628436e+01 -1 -1 0
3074 1132 3 -8.3399999999999996e-01 9.2538577548174032e+00 7.3469581119683003e+00 1.1114926580819226e+01 -1 -1 0
3075 1132 4 4.1699999999999998e-01 9.5128528974104185e+00 7.5513150972016572e+00 1.0170911865103989e+01 -1 -1 0
8 8 1 1.0000000000000000e+00 6.5851280868252591e+00 8.4332222131895165e+00 1.0886697669007791e+01 1 0 0
96 96 2 -1.0000000000000000e+00 2.6630680602394957e+01 1.1558134146340988e+01 7.1007092912198830e+00 0 0 -1

Velocities

529 7.6074273076910236e-03 -1.4371675917468277e-02 -1.7029115241513956e-03
527 5.7788081914648924e-03 4.3450828959724925e-03 2.3977376178940235e-04
528 3.1529749512300646e-03 2.6405373628934367e-03 -4.8275193371778444e-03
3076 -2.9957852178845099e-03 -9.6795626868226708e-03 -2.4438775098951041e-02
3074 -4.5919798388776320e-04 1.5277128694807941e-03 -2.7272500872865023e-03
3075 -2.5911798155396799e-02 3.8161039920153366e-03 -9.1591865924503264e-03
8 -2.9383216298929466e-03 -8.7704261750440717e-04 -3.1509966878985412e-03
96 -4.9202761660093013e-03 -4.6504428063356158e-03 -2.5827519022327029e-03

Bonds

1 1 527 528
2 1 527 529
3 1 3074 3075
4 1 3074 3076

Angles

1 1 528 527 529
2 1 3075 3074 3076
